4
steps = 0,1.5874010519681994
0     0.396850     0.396850      0.39685
0     0.396850     0.396850      1.19055
1     0.396850     1.190551      0.39685
1     0.396850     1.190551      1.19055
4
steps = 10,1.5874010519681994
0     0.218055     0.599726     0.301871
0     0.415462     0.165457      1.19465
1     0.396850     1.190551      0.39685
1     0.396850     1.190551      1.19055
4
steps = 20,1.5874010519681994
0     0.033526     0.590224     0.267328
0     0.415462     0.165457      1.19465
1     0.396850     1.190551      0.39685
1     0.608577     0.993451       1.1901
4
steps = 30,1.5874010519681994
0     0.200971     0.685840     0.612463
0     0.420797     0.003222      1.34879
1     0.396850     1.190551      0.39685
1     0.608577     0.993451       1.1901
4
steps = 40,1.5874010519681994
0     0.244123     0.718962     0.461246
0     0.420797     0.003222      1.34879
1     0.519572     1.374628     0.432326
1     0.851231     0.759071      1.31103
4
steps = 50,1.5874010519681994
0     0.244123     0.718962     0.461246
0     0.919365    -0.124728      1.49606
1     0.575077     1.261319     0.339833
1     0.650693     0.418302      1.15367
4
steps = 60,1.5874010519681994
0    -0.004499     0.434499     0.691194
0     0.808070    -0.391359      1.19253
1     0.575077     1.261319     0.339833
1     0.650693     0.418302      1.15367
4
steps = 70,1.5874010519681994
0     0.108351     0.291205     0.712937
0     1.161387    -0.516163     0.857115
1     0.821694     1.146437      0.43223
1     0.759965     0.279441      1.15758
4
steps = 80,1.5874010519681994
0     0.342194     0.081835     0.782209
0     1.048850    -0.629945      0.83413
1     0.580946     0.997169      0.37256
1     0.759965     0.279441      1.15758
4
steps = 90,1.5874010519681994
0     0.403377     0.194074      1.02642
0     1.184202    -0.784779     0.868042
1     0.240685     0.796864     0.190178
1     0.900971     0.300157     0.964705
4
steps = 100,1.5874010519681994
0     0.316214    -0.086691      1.10762
0     1.184202    -0.784779     0.868042
1     0.003069     0.658779     0.216553
1     0.763120     0.334838      1.08823
4
steps = 110,1.5874010519681994
0     0.399022     0.053105     0.853014
0     1.214945    -0.772882      1.06536
1     0.019452     0.698046    -0.039781
1     0.779258     0.092301       1.1803
4
steps = 120,1.5874010519681994
0     0.160289     0.288648      0.58012
0     1.088066    -0.681513      1.19974
1     0.006612     0.847911    -0.107639
1     0.860124     0.081576     0.859122
4
steps = 130,1.5874010519681994
0     0.160289     0.288648      0.58012
0     0.999188    -0.678659      1.39335
1     0.006612     0.847911    -0.107639
1     0.639968     0.292742     0.724345
4
steps = 140,1.5874010519681994
0     0.160289     0.288648      0.58012
0     1.299160    -0.421914      1.10293
1     0.166239     0.920508   -0.0319456
1     1.002443     0.406288     0.945386
4
steps = 150,1.5874010519681994
0     0.354442     0.385990     0.789939
0     1.236648    -0.395908      0.91221
1     0.188264     0.900007     0.197154
1     1.002443     0.406288     0.945386
4
steps = 160,1.5874010519681994
0     0.354442     0.385990     0.789939
0     1.236014    -0.442451     0.910736
1     0.350117     0.718904     0.417465
1     0.735526     0.025073      1.34279
4
steps = 170,1.5874010519681994
0     0.139879     0.431413     0.451157
0     1.170603    -0.265050     0.957546
1     0.350117     0.718904     0.417465
1     0.735526     0.025073      1.34279
4
steps = 180,1.5874010519681994
0     0.234744     0.574220      0.25334
0     0.883982    -0.409607      1.18564
1     0.368429     0.666503     0.472742
1     0.898212    -0.002808       1.2924
4
steps = 190,1.5874010519681994
0    -0.226491     0.542090     0.470348
0     0.883982    -0.409607      1.18564
1     0.497551     0.728202     0.473312
1     0.898212    -0.002808       1.2924
4
steps = 200,1.5874010519681994
0    -0.233803     0.666859     0.297057
0     0.883982    -0.409607      1.18564
1     0.497551     0.728202     0.473312
1     1.372235    -0.085827      0.58224
4
steps = 210,1.5874010519681994
0    -0.233803     0.666859     0.297057
0     0.825404    -0.374895      1.13384
1     0.548488     0.595523     0.733146
1     1.330128    -0.117928     0.531719
4
steps = 220,1.5874010519681994
0    -0.233803     0.666859     0.297057
0     0.564064    -0.611005      1.05452
1     0.386563     0.483321     0.772869
1     1.183059    -0.242472     0.790121
4
steps = 230,1.5874010519681994
0    -0.147828     0.371903     0.410085
0     0.674233    -0.483273     0.965246
1     0.386563     0.483321     0.772869
1     1.063406    -0.316518     0.565109
4
steps = 240,1.5874010519681994
0    -0.088658     0.376043      0.31471
0     0.680782    -0.773695       1.1619
1     0.326848     0.501004     0.825014
1     1.254006    -0.151419     0.489687
4
steps = 250,1.5874010519681994
0    -0.302584     0.312697     0.219057
0     0.569226    -0.537961      1.22817
1     0.476612     0.634505     0.891669
1     1.115007    -0.186308     0.396589
4
steps = 260,1.5874010519681994
0     0.078819     0.287089  -0.00475805
0     0.744544    -0.488952      1.30224
1     0.476612     0.634505     0.891669
1     1.093215    -0.319033     0.481149
4
steps = 270,1.5874010519681994
0    -0.071054     0.292454    -0.194161
0     0.744544    -0.488952      1.30224
1     0.726437     0.505393     0.950193
1     1.215253    -0.175242     0.357992
4
steps = 280,1.5874010519681994
0    -0.084283     0.442171    -0.217094
0     0.744544    -0.488952      1.30224
1     0.726437     0.505393     0.950193
1     1.407447    -0.281086     0.339377
4
steps = 290,1.5874010519681994
0    -0.084283     0.442171    -0.217094
0     0.908438    -0.372165      1.16647
1     0.560792     0.277239      1.01608
1     1.812236    -0.403980     0.170123
4
steps = 300,1.5874010519681994
0    -0.084283     0.442171    -0.217094
0     1.041475    -0.337576       1.0333
1     0.643734     0.524592     0.872199
1     1.854813    -0.234791    0.0686559
4
steps = 310,1.5874010519681994
0    -0.250876     0.500768     0.150013
0     1.041475    -0.337576       1.0333
1     0.752254     0.694398     0.896386
1     1.870116    -0.138952    0.0268771
4
steps = 320,1.5874010519681994
0    -0.026983     0.377559     0.354687
0     1.165472    -0.198231      1.06821
1     1.012544     1.014572     0.885193
1     1.961733     0.041193      -0.1087
4
steps = 330,1.5874010519681994
0     0.367522     0.357098     0.719454
0     1.211597    -0.277468      1.04979
1     0.978551     1.054245     0.902271
1     1.819300     0.229016     0.246542
4
steps = 340,1.5874010519681994
0     0.264750     0.432859      1.04175
0     1.211597    -0.277468      1.04979
1     0.904054     0.916936     0.980191
1     1.730572     0.135092    -0.285151
4
steps = 350,1.5874010519681994
0     0.264750     0.432859      1.04175
0     1.211597    -0.277468      1.04979
1     0.876513     0.991748     0.849942
1     1.639038     0.114449    -0.278572
4
steps = 360,1.5874010519681994
0     0.476002     0.292094      1.09478
0     1.416542    -0.737011     0.615461
1     0.768473     1.163266     0.607575
1     1.850918     0.228753     -0.12837
4
steps = 370,1.5874010519681994
0     0.476002     0.292094      1.09478
0     1.416542    -0.737011     0.615461
1     0.895234     1.556621     0.842369
1     1.832571     0.167971   0.00804079
4
steps = 380,1.5874010519681994
0     0.446625     0.495800      1.26155
0     1.282857    -0.620831     0.661672
1     0.895234     1.556621     0.842369
1     1.646095     0.457275     0.302441
4
steps = 390,1.5874010519681994
0     0.873963     0.192651      1.29276
0     1.420085    -0.510235     0.683641
1     0.739215     1.396874     0.673473
1     1.646095     0.457275     0.302441
4
steps = 400,1.5874010519681994
0     0.473689     0.321490     0.949908
0     1.231797    -0.576980     0.837374
1     0.739215     1.396874     0.673473
1     1.501307     0.407894     0.373642
4
steps = 410,1.5874010519681994
0     0.473689     0.321490     0.949908
0     1.405829    -0.381562     0.604255
1     0.739215     1.396874     0.673473
1     1.478896     0.559952     0.590552
4
steps = 420,1.5874010519681994
0     0.473689     0.321490     0.949908
0     1.200394    -0.503955     0.646816
1     0.765255     1.424701     0.636001
1     1.503526     0.688050     0.533304
4
steps = 430,1.5874010519681994
0     0.345511     0.424750     0.740227
0     1.257094    -0.385368     0.695508
1     0.765255     1.424701     0.636001
1     1.503526     0.688050     0.533304
4
steps = 440,1.5874010519681994
0     0.582942     0.316787     0.836498
0     1.273995    -0.392931     0.734839
1     0.755726     1.507733     0.697582
1     1.503526     0.688050     0.533304
4
steps = 450,1.5874010519681994
0     0.582942     0.316787     0.836498
0     1.504328    -0.427227     0.832713
1     0.804044     1.473449     0.256588
1     1.717003     0.907405     0.893246
4
steps = 460,1.5874010519681994
0     0.736783     0.567384     0.815604
0     1.504328    -0.427227     0.832713
1     0.804044     1.473449     0.256588
1     1.855566     0.764634     0.931355
4
steps = 470,1.5874010519681994
0     0.647654     0.452346      0.86889
0     1.464512    -0.264438      0.92459
1     0.781720     1.395391      0.14796
1     1.793757     0.708764      0.56229
4
steps = 480,1.5874010519681994
0     0.475968     0.394624     0.749758
0     1.184251    -0.432554      1.18218
1     0.533457     1.407022   -0.0922759
1     1.796822     0.647416      0.78971
4
steps = 490,1.5874010519681994
0     0.461825     0.414915     0.565068
0     1.077625    -0.649882       1.3752
1     0.674175     1.513717   -0.0295255
1     1.856713     1.021384     0.765214
4
steps = 500,1.5874010519681994
0     0.162132     0.053404      0.64717
0     1.253326    -0.821699      1.53988
1     0.674175     1.513717   -0.0295255
1     1.690985     0.924842     0.584114
4
steps = 510,1.5874010519681994
0     0.105979    -0.056567     0.808859
0     1.253326    -0.821699      1.53988
1     0.599023     1.461998    -0.156317
1     1.790848     0.782448     0.687616
4
steps = 520,1.5874010519681994
0     0.098374    -0.286674     0.797192
0     1.159561    -0.820451      1.56089
1     0.886298     1.833823    -0.216567
1     1.790848     0.782448     0.687616
4
steps = 530,1.5874010519681994
0    -0.118533    -0.042298     0.768062
0     1.191366    -0.887671       1.6449
1     0.886298     1.833823    -0.216567
1     1.792373     0.877443     0.858762
4
steps = 540,1.5874010519681994
0    -0.240563     0.150996      0.87241
0     1.263428    -0.834643      1.66684
1     1.203550     1.773387     0.192418
1     1.790044     0.996863      0.97977
4
steps = 550,1.5874010519681994
0    -0.073884    -0.081818      1.04053
0     1.306472    -0.898715      1.72263
1     1.011463     1.752136     0.185085
1     1.863873     1.051988     0.752146
4
steps = 560,1.5874010519681994
0    -0.073884    -0.081818      1.04053
0     1.306472    -0.898715      1.72263
1     0.788045     1.563594    -0.234073
1     1.681252     0.708791     0.888682
4
steps = 570,1.5874010519681994
0    -0.189776    -0.169257     0.938961
0     1.479698    -0.954953      1.89402
1     0.838058     1.647870    -0.346324
1     1.736399     0.807959      1.21049
4
steps = 580,1.5874010519681994
0    -0.309014    -0.092060      1.16408
0     1.652663    -0.780078      1.85854
1     0.951112     1.510227    -0.322862
1     1.736399     0.807959      1.21049
4
steps = 590,1.5874010519681994
0    -0.309014    -0.092060      1.16408
0     1.637071    -1.013939      1.88462
1     0.960732     1.645466    -0.617653
1     1.861236     0.862194      1.45056
4
steps = 600,1.5874010519681994
0    -0.309014    -0.092060      1.16408
0     2.081237    -1.129973      1.76413
1     0.960732     1.645466    -0.617653
1     1.861236     0.862194      1.45056
4
steps = 610,1.5874010519681994
0    -0.352590     0.221918     0.936499
0     2.081237    -1.129973      1.76413
1     1.060980     1.605008    -0.653412
1     1.737753     1.089178      1.87857
4
steps = 620,1.5874010519681994
0    -0.352590     0.221918     0.936499
0     2.081237    -1.129973      1.76413
1     1.100521     1.879226    -0.501429
1     2.162811     0.692620      1.84497
4
steps = 630,1.5874010519681994
0    -0.512032     0.347208     0.967369
0     1.871472    -0.894515      1.86769
1     1.100521     1.879226    -0.501429
1     1.808330     0.686547      1.77497
4
steps = 640,1.5874010519681994
0    -0.612618     0.531462      1.18797
0     1.871472    -0.894515      1.86769
1     1.177799     1.901014    -0.578985
1     1.697199     0.909873      1.81046
4
steps = 650,1.5874010519681994
0    -0.656172     0.550714      1.15433
0     1.871472    -0.894515      1.86769
1     0.997333     1.921502    -0.793023
1     1.778873     0.969295      2.03977
4
steps = 660,1.5874010519681994
0    -0.758111     0.273119      1.15094
0     1.871472    -0.894515      1.86769
1     0.942098     1.972231    -0.747678
1     1.638758     1.150253      1.68282
4
steps = 670,1.5874010519681994
0    -0.384450     0.112982      1.22107
0     1.822538    -1.124796       2.0391
1     0.959367     1.659048    -0.577222
1     1.710718     1.155225      1.85216
4
steps = 680,1.5874010519681994
0    -0.489036     0.005650      1.03539
0     1.822538    -1.124796       2.0391
1     1.032953     1.625898    -0.356148
1     1.933578     1.051467      1.88949
4
steps = 690,1.5874010519681994
0    -0.447458    -0.211555      1.19957
0     1.914290    -0.877901      1.85859
1     1.032953     1.625898    -0.356148
1     2.101851     0.904308      2.04294
4
steps = 700,1.5874010519681994
0    -0.385175    -0.132677      1.17724
0     1.938112    -0.860155      2.21194
1     0.918597     1.764200    -0.389411
1     2.101851     0.904308      2.04294
4
steps = 710,1.5874010519681994
0    -0.484569    -0.509907      1.46406
0     1.865333    -0.671847      2.20091
1     1.240593     1.825780     -0.82454
1     1.971701     0.956823      1.88946
4
steps = 720,1.5874010519681994
0    -0.484569    -0.509907      1.46406
0     1.865333    -0.671847      2.20091
1     1.077872     1.669393    -0.854468
1     2.278468     0.938514      1.69656
4
steps = 730,1.5874010519681994
0    -0.511886    -0.712908       1.4429
0     1.861629    -0.684432      2.13239
1     1.077872     1.669393    -0.854468
1     2.278468     0.938514      1.69656
4
steps = 740,1.5874010519681994
0    -0.511886    -0.712908       1.4429
0     1.861629    -0.684432      2.13239
1     1.213143     2.148526    -0.690715
1     2.039848     1.124979      1.60833
4
steps = 750,1.5874010519681994
0    -0.452109    -0.842391      1.33163
0     1.861629    -0.684432      2.13239
1     1.405976     2.216541    -0.915838
1     2.191935     1.599724      1.35877
4
steps = 760,1.5874010519681994
0    -0.512390    -0.982414      1.54285
0     1.861629    -0.684432      2.13239
1     1.405976     2.216541    -0.915838
1     2.201813     1.468849       1.4454
4
steps = 770,1.5874010519681994
0    -0.624953    -0.653917      1.38114
0     1.843214    -0.858341      2.25557
1     1.285826     2.109544     -1.05645
1     2.328188     1.156617      1.38367
4
steps = 780,1.5874010519681994
0    -0.831222    -0.560176      1.54653
0     1.652241    -1.058155      2.40201
1     1.512062     2.093944    -0.925069
1     2.397987     0.982915      1.35034
4
steps = 790,1.5874010519681994
0    -0.659855    -0.233511      1.48079
0     1.456657    -0.996916      2.49353
1     1.600461     2.106262    -0.902863
1     2.580460     1.062322      1.46164
4
steps = 800,1.5874010519681994
0    -0.985923    -0.480852      1.73943
0     1.202138    -1.251966      2.38134
1     1.903077     2.184535     -1.09485
1     2.580460     1.062322      1.46164
4
steps = 810,1.5874010519681994
0    -1.079409    -0.453783      1.93498
0     1.185906    -1.389031      2.21794
1     2.111627     1.986093      -1.0791
1     2.485474     1.021726      1.34284
4
steps = 820,1.5874010519681994
0    -1.048078    -0.659426      1.65791
0     1.186139    -1.402514      1.99028
1     1.749043     1.996040    -0.907275
1     2.485474     1.021726      1.34284
4
steps = 830,1.5874010519681994
0    -0.963636    -0.521928      1.67519
0     1.263064    -1.388783      2.23246
1     1.739775     1.817052    -0.961027
1     2.610733     0.782138      1.44862
4
steps = 840,1.5874010519681994
0    -0.953259    -0.530319      1.47569
0     0.974949    -1.300045      1.97572
1     1.739775     1.817052    -0.961027
1     2.242056     0.981365      1.40168
4
steps = 850,1.5874010519681994
0    -0.953259    -0.530319      1.47569
0     1.063041    -1.234437      2.37427
1     1.888899     1.842609    -0.829348
1     2.405547     1.020743      1.23665
4
steps = 860,1.5874010519681994
0    -0.815452    -0.445401      1.39098
0     0.764828    -1.408600      2.18288
1     1.690904     1.938472     -0.60605
1     2.534351     1.122010      1.05181
4
steps = 870,1.5874010519681994
0    -0.815452    -0.445401      1.39098
0     0.915217    -1.401307      2.18354
1     1.693283     1.955649    -0.899866
1     2.534351     1.122010      1.05181
4
steps = 880,1.5874010519681994
0    -0.815796    -0.641489      1.54562
0     0.884016    -1.340331      2.42367
1     1.693283     1.955649    -0.899866
1     2.472399     1.244825      1.17723
4
steps = 890,1.5874010519681994
0    -0.975043    -0.654489      1.71447
0     0.692547    -1.459341      2.48673
1     1.804239     1.987437      -1.0071
1     2.593946     1.257123     0.991599
4
steps = 900,1.5874010519681994
0    -0.975043    -0.654489      1.71447
0     0.692547    -1.459341      2.48673
1     1.804239     1.987437      -1.0071
1     2.430629     1.081613      1.13512
4
steps = 910,1.5874010519681994
0    -0.703152    -0.701091      1.79849
0     0.780011    -1.505572      2.39179
1     1.739185     2.124019     -1.23782
1     2.244721     1.101454      1.14251
4
steps = 920,1.5874010519681994
0    -0.858173    -0.650137      1.63212
0     0.780011    -1.505572      2.39179
1     1.761773     2.035445     -1.35664
1     2.192679     1.010460     0.999019
4
steps = 930,1.5874010519681994
0    -0.760083    -0.685590      1.52431
0     0.780011    -1.505572      2.39179
1     1.761773     2.035445     -1.35664
1     2.370307     1.432703     0.942625
4
steps = 940,1.5874010519681994
0    -0.850171    -0.700381      1.55138
0     0.748343    -1.390200      2.36445
1     1.761773     2.035445     -1.35664
1     2.370307     1.432703     0.942625
4
steps = 950,1.5874010519681994
0    -0.850171    -0.700381      1.55138
0     0.805324    -1.519960      2.23242
1     1.761773     2.035445     -1.35664
1     2.277010     1.172704      1.26951
4
steps = 960,1.5874010519681994
0    -0.850171    -0.700381      1.55138
0     0.805324    -1.519960      2.23242
1     1.730256     2.232695     -1.30187
1     2.394347     1.262791      1.28632
4
steps = 970,1.5874010519681994
0    -1.084235    -0.795923      1.77196
0     0.679132    -1.540354      2.43532
1     1.317148     2.574427     -1.11325
1     2.242045     1.315869       1.3119
4
steps = 980,1.5874010519681994
0    -1.144744    -0.788616      1.60162
0     0.679132    -1.540354      2.43532
1     1.317148     2.574427     -1.11325
1     2.232389     1.629437      1.16141
4
steps = 990,1.5874010519681994
0    -1.387329    -0.571042      1.77867
0     0.886036    -1.652885      2.36419
1     1.383400     2.401643     -1.21731
1     2.264282     1.641205      1.12002
4
steps = 1000,1.5874010519681994
0    -1.707217    -0.765272      1.79338
0     0.538686    -1.683612      2.82065
1     1.356818     2.307007     -1.21915
1     2.247764     1.642031     0.992124
4
steps = 1010,1.5874010519681994
0    -1.687246    -0.601284      2.02718
0     0.538686    -1.683612      2.82065
1     1.401684     2.353480     -1.19762
1     2.117419     1.586416     0.766621
4
steps = 1020,1.5874010519681994
0    -1.687246    -0.601284      2.02718
0     0.592965    -1.596837      2.81954
1     1.396982     2.365765     -1.04825
1     2.117419     1.586416     0.766621
4
steps = 1030,1.5874010519681994
0    -1.752600    -0.964690      1.68368
0     0.601079    -1.850478        2.836
1     1.316420     2.345277    -0.945385
1     2.041894     1.536859     0.533638
4
steps = 1040,1.5874010519681994
0    -1.522478    -0.761832      1.85905
0     0.973400    -1.734077       2.6821
1     1.277598     2.354719    -0.866661
1     2.041894     1.536859     0.533638
4
steps = 1050,1.5874010519681994
0    -1.676536    -0.732486      1.82865
0     0.973400    -1.734077       2.6821
1     1.281646     2.374030    -0.960415
1     2.172995     1.446961     0.266989
4
steps = 1060,1.5874010519681994
0    -1.526050    -0.683805      1.67371
0     1.089588    -1.668718      2.58717
1     1.395482     2.297564    -0.663912
1     1.974885     1.506511     0.253597
4
steps = 1070,1.5874010519681994
0    -1.526050    -0.683805      1.67371
0     0.966896    -1.615335      2.59969
1     1.351323     2.358464    -0.435478
1     1.941626     1.608935    0.0657891
4
steps = 1080,1.5874010519681994
0    -1.596356    -0.653278      1.69998
0     1.104126    -1.739757      2.54469
1     1.472544     2.293548    -0.254781
1     2.032653     1.406084     0.270024
4
steps = 1090,1.5874010519681994
0    -1.369297    -0.976497      1.93528
0     1.104126    -1.739757      2.54469
1     1.566445     2.318193    -0.382148
1     2.296620     1.853853     0.350934
4
steps = 1100,1.5874010519681994
0    -1.480145    -1.028812      1.90994
0     1.177386    -2.078172      2.56439
1     1.761707     2.532906    -0.308131
1     2.499248     2.097991     0.180518
4
steps = 1110,1.5874010519681994
0    -1.385397    -1.145818      1.74726
0     1.326500    -1.814444      2.58149
1     1.561268     2.722095    -0.217099
1     2.499248     2.097991     0.180518
4
steps = 1120,1.5874010519681994
0    -1.385397    -1.145818      1.74726
0     1.326500    -1.814444      2.58149
1     1.551434     2.746787    -0.133126
1     2.359460     2.125274     0.189422
4
steps = 1130,1.5874010519681994
0    -1.388387    -1.071583       1.7303
0     0.846932    -1.696139      2.50361
1     1.715359     2.797133     -0.36695
1     2.201897     1.984265  -0.00819474
4
steps = 1140,1.5874010519681994
0    -1.214938    -0.990123      1.95018
0     1.186209    -1.455708      2.53505
1     1.582212     2.574135    -0.598119
1     2.201897     1.984265  -0.00819474
4
steps = 1150,1.5874010519681994
0    -1.381792    -0.934434      2.19341
0     1.322773    -1.577052      2.84953
1     1.786327     2.906373    -0.659453
1     2.072996     2.057401     0.110054
4
steps = 1160,1.5874010519681994
0    -1.045708    -1.280534      2.14499
0     1.322773    -1.577052      2.84953
1     1.720714     2.842860    -0.713186
1     2.157015     2.101318   -0.0730887
4
steps = 1170,1.5874010519681994
0    -1.144440    -1.209023      1.98305
0     1.322773    -1.577052      2.84953
1     1.625757     2.928602    -0.729145
1     2.247256     1.938354     0.109092
4
steps = 1180,1.5874010519681994
0    -1.144440    -1.209023      1.98305
0     1.204580    -1.299850      2.89753
1     1.723007     2.586918    -0.551262
1     2.452806     1.817067     0.326134
4
steps = 1190,1.5874010519681994
0    -1.144440    -1.209023      1.98305
0     1.204580    -1.299850      2.89753
1     1.615877     2.496728    -0.293027
1     2.309001     1.435174     0.322137
4
steps = 1200,1.5874010519681994
0    -1.144440    -1.209023      1.98305
0     1.087138    -1.432313      2.74709
1     1.285967     2.531848    -0.433024
1     2.431681     1.540909     0.233823
4
steps = 1210,1.5874010519681994
0    -1.278955    -1.334824      1.92108
0     1.009784    -1.582411       2.7047
1     1.448955     2.707482    -0.225174
1     2.250019     1.671368       0.3542
4
steps = 1220,1.5874010519681994
0    -1.431016    -1.525586      1.87787
0     0.980317    -1.682888       2.6712
1     1.390182     2.554948   -0.0197481
1     2.250019     1.671368       0.3542
4
steps = 1230,1.5874010519681994
0    -1.431016    -1.525586      1.87787
0     1.088484    -1.461084      2.64512
1     1.395079     2.947906    -0.155752
1     2.205611     1.749193     0.497699
4
steps = 1240,1.5874010519681994
0    -1.431016    -1.525586      1.87787
0     0.882072    -1.250658      2.47184
1     1.395079     2.947906    -0.155752
1     2.122899     1.664588      0.59823
4
steps = 1250,1.5874010519681994
0    -1.527357    -1.488523      1.62501
0     0.785681    -1.057365      2.53314
1     1.282935     2.916398    -0.299331
1     1.975812     1.609166     0.565152
4
steps = 1260,1.5874010519681994
0    -1.573724    -1.263185      1.84512
0     0.604856    -0.739130      2.59254
1     1.151642     3.011146    -0.473632
1     2.017325     1.196936     0.488467
4
steps = 1270,1.5874010519681994
0    -1.664762    -1.306242      1.60582
0     0.368134    -0.612111      2.62396
1     1.151642     3.011146    -0.473632
1     2.017325     1.196936     0.488467
4
steps = 1280,1.5874010519681994
0    -1.664762    -1.306242      1.60582
0     0.368134    -0.612111      2.62396
1     1.453017     3.038066    -0.311758
1     2.229141     1.220867     0.385639
4
steps = 1290,1.5874010519681994
0    -1.716945    -1.176492      1.99441
0     0.331852    -0.413616      2.59045
1     1.448805     3.229744   -0.0707396
1     2.229141     1.220867     0.385639
4
steps = 1300,1.5874010519681994
0    -1.889869    -1.304818       2.0615
0     0.417250    -0.510309      3.11663
1     1.448805     3.229744   -0.0707396
1     2.338458     1.225461     0.499211
4
steps = 1310,1.5874010519681994
0    -1.900385    -1.392776       1.9155
0     0.329322    -0.399370      2.95335
1     1.281892     3.308191    -0.272739
1     2.184824     1.115870      0.46044
4
steps = 1320,1.5874010519681994
0    -2.009239    -1.198317      1.85854
0     0.329322    -0.399370      2.95335
1     1.329960     3.247956    -0.284045
1     2.022307     0.990529     0.796393
4
steps = 1330,1.5874010519681994
0    -1.737312    -1.231637      1.76214
0     0.367406    -0.528059      2.58509
1     1.301235     3.025193    -0.287543
1     1.839269     0.729183     0.707087
4
steps = 1340,1.5874010519681994
0    -1.758847    -1.349627      2.10481
0     0.367406    -0.528059      2.58509
1     1.078198     3.177842    -0.487349
1     1.865342     0.640041     0.573576
4
steps = 1350,1.5874010519681994
0    -1.758847    -1.349627      2.10481
0     0.581556    -0.923056       2.8163
1     1.311438     3.179970    -0.319784
1     2.232781     0.825849     0.604254
4
steps = 1360,1.5874010519681994
0    -1.710298    -1.224035      2.10537
0     0.581556    -0.923056       2.8163
1     1.294276     3.145006    -0.561399
1     2.300988     0.777662     0.363994
4
steps = 1370,1.5874010519681994
0    -1.864164    -1.541366      2.06983
0     0.581556    -0.923056       2.8163
1     1.665127     2.759964  -0.00489935
1     2.477359     0.680850     0.430352
4
steps = 1380,1.5874010519681994
0    -1.820400    -1.403346      2.11751
0     0.386087    -0.818039      2.94499
1     1.540725     2.792910     -0.11484
1     2.563721     0.695372     0.639483
4
steps = 1390,1.5874010519681994
0    -2.015420    -1.570100      2.30503
0     0.477218    -0.765024      2.81759
1     1.299889     2.860083   -0.0505307
1     2.563721     0.695372     0.639483
4
steps = 1400,1.5874010519681994
0    -2.015420    -1.570100      2.30503
0     0.477218    -0.765024      2.81759
1     1.325622     2.979395    -0.240336
1     2.809088     0.526720     0.555867
4
steps = 1410,1.5874010519681994
0    -2.015420    -1.570100      2.30503
0     0.504106    -0.882706      2.90447
1     1.539144     2.951267 -0.000687175
1     2.721981     0.570661     0.535174
4
steps = 1420,1.5874010519681994
0    -2.157926    -1.437944      2.38016
0    -0.020779    -0.473617      3.15905
1     1.745751     3.127520    -0.386656
1     2.500930     0.499286      0.33161
4
steps = 1430,1.5874010519681994
0    -2.157926    -1.437944      2.38016
0    -0.183713    -0.589293      3.25908
1     1.452057     3.243742    -0.280028
1     2.245477     0.580405     0.421392
4
steps = 1440,1.5874010519681994
0    -2.748544    -1.060711      2.62468
0    -0.183713    -0.589293      3.25908
1     1.452057     3.243742    -0.280028
1     2.232976     0.346343     0.525493
4
steps = 1450,1.5874010519681994
0    -2.748544    -1.060711      2.62468
0    -0.447399    -0.371801      2.80979
1     1.452057     3.243742    -0.280028
1     2.305845     0.406783     0.454824
4
steps = 1460,1.5874010519681994
0    -2.922767    -1.079152      2.63723
0    -0.407738    -0.317599      2.64947
1     1.640777     2.993827    -0.283224
1     2.308165     0.249665      0.48044
4
steps = 1470,1.5874010519681994
0    -2.722771    -1.103772      2.26888
0    -0.407738    -0.317599      2.64947
1     1.657861     2.920251    -0.280229
1     2.308165     0.249665      0.48044
4
steps = 1480,1.5874010519681994
0    -2.722771    -1.103772      2.26888
0    -0.386187    -0.231818      2.77801
1     1.822177     2.755651   -0.0397756
1     2.375310     0.274201     0.612528
4
steps = 1490,1.5874010519681994
0    -2.620722    -1.339611      2.38354
0    -0.661041    -0.361419      3.20957
1     2.010402     2.848404    0.0881839
1     2.249024     0.465698      0.64329
4
steps = 1500,1.5874010519681994
0    -2.409410    -1.168228      2.30772
0    -0.511447    -0.314842      3.05223
1     1.891006     2.706150    0.0614173
1     2.439690     0.245910     0.828499
4
steps = 1510,1.5874010519681994
0    -2.472602    -1.167102      2.44571
0    -0.302213    -0.203580      3.26135
1     1.891006     2.706150    0.0614173
1     2.372208     0.613932     0.887683
4