216
steps = 0,7.559526299369238
0     0.629961     0.629961     0.629961
0     0.629961     0.629961      1.88988
0     0.629961     0.629961       3.1498
0     0.629961     0.629961      4.40972
0     0.629961     0.629961      5.66964
0     0.629961     0.629961      6.92957
0     0.629961     1.889882     0.629961
0     0.629961     1.889882      1.88988
0     0.629961     1.889882       3.1498
0     0.629961     1.889882      4.40972
0     0.629961     1.889882      5.66964
0     0.629961     1.889882      6.92957
0     0.629961     3.149803     0.629961
0     0.629961     3.149803      1.88988
0     0.629961     3.149803       3.1498
0     0.629961     3.149803      4.40972
0     0.629961     3.149803      5.66964
0     0.629961     3.149803      6.92957
0     0.629961     4.409724     0.629961
0     0.629961     4.409724      1.88988
0     0.629961     4.409724       3.1498
0     0.629961     4.409724      4.40972
0     0.629961     4.409724      5.66964
0     0.629961     4.409724      6.92957
0     0.629961     5.669645     0.629961
0     0.629961     5.669645      1.88988
0     0.629961     5.669645       3.1498
0     0.629961     5.669645      4.40972
0     0.629961     5.669645      5.66964
0     0.629961     5.669645      6.92957
0     0.629961     6.929566     0.629961
0     0.629961     6.929566      1.88988
0     0.629961     6.929566       3.1498
0     0.629961     6.929566      4.40972
0     0.629961     6.929566      5.66964
0     0.629961     6.929566      6.92957
0     1.889882     0.629961     0.629961
0     1.889882     0.629961      1.88988
0     1.889882     0.629961       3.1498
0     1.889882     0.629961      4.40972
0     1.889882     0.629961      5.66964
0     1.889882     0.629961      6.92957
0     1.889882     1.889882     0.629961
0     1.889882     1.889882      1.88988
0     1.889882     1.889882       3.1498
0     1.889882     1.889882      4.40972
0     1.889882     1.889882      5.66964
0     1.889882     1.889882      6.92957
0     1.889882     3.149803     0.629961
0     1.889882     3.149803      1.88988
0     1.889882     3.149803       3.1498
0     1.889882     3.149803      4.40972
0     1.889882     3.149803      5.66964
0     1.889882     3.149803      6.92957
0     1.889882     4.409724     0.629961
0     1.889882     4.409724      1.88988
0     1.889882     4.409724       3.1498
0     1.889882     4.409724      4.40972
0     1.889882     4.409724      5.66964
0     1.889882     4.409724      6.92957
0     1.889882     5.669645     0.629961
0     1.889882     5.669645      1.88988
0     1.889882     5.669645       3.1498
0     1.889882     5.669645      4.40972
0     1.889882     5.669645      5.66964
0     1.889882     5.669645      6.92957
0     1.889882     6.929566     0.629961
0     1.889882     6.929566      1.88988
0     1.889882     6.929566       3.1498
0     1.889882     6.929566      4.40972
0     1.889882     6.929566      5.66964
0     1.889882     6.929566      6.92957
0     3.149803     0.629961     0.629961
0     3.149803     0.629961      1.88988
0     3.149803     0.629961       3.1498
0     3.149803     0.629961      4.40972
0     3.149803     0.629961      5.66964
0     3.149803     0.629961      6.92957
0     3.149803     1.889882     0.629961
0     3.149803     1.889882      1.88988
0     3.149803     1.889882       3.1498
0     3.149803     1.889882      4.40972
0     3.149803     1.889882      5.66964
0     3.149803     1.889882      6.92957
0     3.149803     3.149803     0.629961
0     3.149803     3.149803      1.88988
0     3.149803     3.149803       3.1498
0     3.149803     3.149803      4.40972
0     3.149803     3.149803      5.66964
0     3.149803     3.149803      6.92957
0     3.149803     4.409724     0.629961
0     3.149803     4.409724      1.88988
0     3.149803     4.409724       3.1498
0     3.149803     4.409724      4.40972
0     3.149803     4.409724      5.66964
0     3.149803     4.409724      6.92957
0     3.149803     5.669645     0.629961
0     3.149803     5.669645      1.88988
0     3.149803     5.669645       3.1498
0     3.149803     5.669645      4.40972
0     3.149803     5.669645      5.66964
0     3.043688     5.658223      6.90018
0     3.149803     6.929566     0.629961
0     3.149803     6.929566      1.88988
0     3.149803     6.929566       3.1498
0     3.149803     6.929566      4.40972
0     3.149803     6.929566      5.66964
0     3.149803     6.929566      6.92957
0     4.409724     0.629961     0.629961
0     4.409724     0.629961      1.88988
0     4.409724     0.629961       3.1498
0     4.409724     0.629961      4.40972
0     4.409724     0.629961      5.66964
0     4.409724     0.629961      6.92957
0     4.409724     1.889882     0.629961
0     4.409724     1.889882      1.88988
0     4.409724     1.889882       3.1498
0     4.409724     1.889882      4.40972
0     4.409724     1.889882      5.66964
0     4.409724     1.889882      6.92957
0     4.409724     3.149803     0.629961
0     4.409724     3.149803      1.88988
0     4.409724     3.149803       3.1498
0     4.409724     3.149803      4.40972
0     4.409724     3.149803      5.66964
0     4.409724     3.149803      6.92957
0     4.409724     4.409724     0.629961
0     4.409724     4.409724      1.88988
0     4.409724     4.409724       3.1498
0     4.409724     4.409724      4.40972
0     4.409724     4.409724      5.66964
0     4.409724     4.409724      6.92957
0     4.409724     5.669645     0.629961
0     4.409724     5.669645      1.88988
0     4.409724     5.669645       3.1498
0     4.409724     5.669645      4.40972
0     4.409724     5.669645      5.66964
0     4.409724     5.669645      6.92957
0     4.409724     6.929566     0.629961
0     4.409724     6.929566      1.88988
0     4.409724     6.929566       3.1498
0     4.409724     6.929566      4.40972
0     4.409724     6.929566      5.66964
0     4.409724     6.929566      6.92957
0     5.669645     0.629961     0.629961
0     5.669645     0.629961      1.88988
0     5.669645     0.629961       3.1498
0     5.669645     0.629961      4.40972
0     5.669645     0.629961      5.66964
0     5.669645     0.629961      6.92957
0     5.669645     1.889882     0.629961
0     5.669645     1.889882      1.88988
0     5.669645     1.889882       3.1498
0     5.669645     1.889882      4.40972
0     5.669645     1.889882      5.66964
0     5.669645     1.889882      6.92957
0     5.669645     3.149803     0.629961
0     5.669645     3.149803      1.88988
0     5.669645     3.149803       3.1498
0     5.669645     3.149803      4.40972
0     5.669645     3.149803      5.66964
0     5.669645     3.149803      6.92957
0     5.669645     4.409724     0.629961
0     5.669645     4.409724      1.88988
0     5.669645     4.409724       3.1498
0     5.669645     4.409724      4.40972
0     5.669645     4.409724      5.66964
0     5.669645     4.409724      6.92957
0     5.669645     5.669645     0.629961
0     5.669645     5.669645      1.88988
0     5.669645     5.669645       3.1498
0     5.669645     5.669645      4.40972
0     5.669645     5.669645      5.66964
0     5.669645     5.669645      6.92957
0     5.669645     6.929566     0.629961
0     5.669645     6.929566      1.88988
0     5.669645     6.929566       3.1498
0     5.669645     6.929566      4.40972
0     5.669645     6.929566      5.66964
0     5.669645     6.929566      6.92957
0     6.929566     0.629961     0.629961
0     6.929566     0.629961      1.88988
0     6.929566     0.629961       3.1498
0     6.929566     0.629961      4.40972
0     6.929566     0.629961      5.66964
0     6.929566     0.629961      6.92957
0     6.929566     1.889882     0.629961
0     6.929566     1.889882      1.88988
0     6.929566     1.889882       3.1498
0     6.929566     1.889882      4.40972
0     6.929566     1.889882      5.66964
0     6.929566     1.889882      6.92957
0     6.929566     3.149803     0.629961
0     6.929566     3.149803      1.88988
0     6.929566     3.149803       3.1498
0     6.929566     3.149803      4.40972
0     6.929566     3.149803      5.66964
0     6.929566     3.149803      6.92957
0     6.929566     4.409724     0.629961
0     6.929566     4.409724      1.88988
0     6.929566     4.409724       3.1498
0     6.929566     4.409724      4.40972
0     6.929566     4.409724      5.66964
0     6.929566     4.409724      6.92957
0     6.929566     5.669645     0.629961
0     6.929566     5.669645      1.88988
0     6.929566     5.669645       3.1498
0     6.929566     5.669645      4.40972
0     6.929566     5.669645      5.66964
0     6.929566     5.669645      6.92957
0     6.929566     6.929566     0.629961
0     6.929566     6.929566      1.88988
0     6.929566     6.929566       3.1498
0     6.929566     6.929566      4.40972
0     6.929566     6.929566      5.66964
0     6.929566     6.929566      6.92957
216
steps = 100,7.559526299369238
0     0.629961     0.629961     0.629961
0     0.585050     0.446323      1.71292
0     0.629961     0.629961       3.1498
0     0.629961     0.629961      4.40972
0     0.662507     0.777049      5.54228
0     0.629961     0.629961      6.92957
0     0.629961     1.889882     0.629961
0     0.629961     1.889882      1.88988
0     0.704078     1.926504      3.10294
0     0.629961     1.889882      4.40972
0     0.629961     1.889882      5.66964
0     0.738912     1.862193      6.89235
0     0.398518     3.040454     0.644519
0     0.629961     3.149803      1.88988
0     0.629961     3.149803       3.1498
0     0.629961     3.149803      4.40972
0     0.543807     3.141772      5.69112
0     0.629961     3.149803      6.92957
0     0.799970     4.519405     0.763769
0     0.629961     4.409724      1.88988
0     0.629961     4.409724       3.1498
0     0.629961     4.409724      4.40972
0     0.804412     4.486869      5.78785
0     0.629961     4.409724      6.92957
0     0.629961     5.669645     0.629961
0     0.551412     5.642765      1.92878
0     0.629961     5.669645       3.1498
0     0.629961     5.669645      4.40972
0     0.599744     5.693183      5.57609
0     0.629961     5.669645      6.92957
0     0.629961     6.929566     0.629961
0     0.629961     6.929566      1.88988
0     0.629961     6.929566       3.1498
0     0.629961     6.929566      4.40972
0     0.629961     6.929566      5.66964
0     0.457871     7.049554      6.92954
0     1.889882     0.629961     0.629961
0     1.889882     0.629961      1.88988
0     1.889882     0.629961       3.1498
0     1.889882     0.629961      4.40972
0     1.889882     0.629961      5.66964
0     1.889882     0.629961      6.92957
0     1.889882     1.889882     0.629961
0     1.889882     1.889882      1.88988
0     1.889882     1.889882       3.1498
0     1.889882     1.889882      4.40972
0     2.079303     1.802231      5.69922
0     1.889882     1.889882      6.92957
0     1.889882     3.149803     0.629961
0     1.957328     2.956636      1.76859
0     1.889882     3.149803       3.1498
0     1.819504     3.131331      4.61086
0     1.889882     3.149803      5.66964
0     1.889882     3.149803      6.92957
0     2.116151     4.650915     0.582694
0     1.889882     4.409724      1.88988
0     1.727760     4.261166      3.05584
0     1.929704     4.243681      4.49114
0     1.889882     4.409724      5.66964
0     1.889882     4.409724      6.92957
0     1.857818     5.730765      0.76689
0     1.889882     5.669645      1.88988
0     1.684302     5.893089      3.26385
0     1.889882     5.669645      4.40972
0     1.889882     5.669645      5.66964
0     1.889882     5.669645      6.92957
0     1.889882     6.929566     0.629961
0     1.889882     6.929566      1.88988
0     1.889882     6.929566       3.1498
0     1.889882     6.929566      4.40972
0     2.054600     6.698955      5.47939
0     1.889882     6.929566      6.92957
0     3.149803     0.629961     0.629961
0     3.192910     0.556309      1.83865
0     3.149803     0.629961       3.1498
0     3.149803     0.629961      4.40972
0     3.100690     0.745888      5.88835
0     3.149803     0.629961      6.92957
0     3.149803     1.889882     0.629961
0     3.149803     1.889882      1.88988
0     3.149803     1.889882       3.1498
0     3.149803     1.889882      4.40972
0     3.149803     1.889882      5.66964
0     3.280032     1.720683      6.92771
0     3.149803     3.149803     0.629961
0     3.149803     3.149803      1.88988
0     3.149803     3.149803       3.1498
0     3.149803     3.149803      4.40972
0     3.149803     3.149803      5.66964
0     3.149803     3.149803      6.92957
0     3.149803     4.409724     0.629961
0     3.178336     4.186801      2.03626
0     3.149803     4.409724       3.1498
0     3.149803     4.409724      4.40972
0     3.149803     4.409724      5.66964
0     3.149803     4.409724      6.92957
0     3.149803     5.669645     0.629961
0     3.149803     5.669645      1.88988
0     2.984154     5.527196      3.26071
0     3.438695     5.475047      4.31941
0     3.149803     5.669645      5.66964
0     3.043688     5.658223      6.90018
0     3.149803     6.929566     0.629961
0     3.149803     6.929566      1.88988
0     3.119663     6.714791      3.35675
0     3.149803     6.929566      4.40972
0     3.286529     6.890029      5.88265
0     3.149803     6.929566      6.92957
0     4.193756     0.520419     0.795707
0     4.409724     0.629961      1.88988
0     4.409724     0.629961       3.1498
0     4.420526     0.429094      4.61987
0     4.409724     0.629961      5.66964
0     4.459147     0.509359      7.08895
0     4.392427     1.969415     0.452924
0     4.601286     1.708209      2.01982
0     4.584402     1.752073      3.38369
0     4.409724     1.889882      4.40972
0     4.409724     1.889882      5.66964
0     4.409724     1.889882      6.92957
0     4.409724     3.149803     0.629961
0     4.409724     3.149803      1.88988
0     4.491564     3.153766      3.03864
0     4.409724     3.149803      4.40972
0     4.288446     2.995802      5.84266
0     4.409724     3.149803      6.92957
0     4.409724     4.409724     0.629961
0     4.409724     4.409724      1.88988
0     4.356854     4.361988      3.38377
0     4.268355     4.186174      4.63961
0     4.409724     4.409724      5.66964
0     4.527834     4.425999      6.68722
0     4.384775     5.633502     0.559559
0     4.337669     5.555874      1.76563
0     4.409724     5.669645       3.1498
0     4.421626     5.576281      4.61722
0     4.409724     5.669645      5.66964
0     4.409724     5.669645      6.92957
0     4.409724     6.929566     0.629961
0     4.452191     6.751294      2.02803
0     4.409724     6.929566       3.1498
0     4.409724     6.929566      4.40972
0     4.651508     7.102638      5.54332
0     4.409724     6.929566      6.92957
0     5.669645     0.629961     0.629961
0     5.669645     0.629961      1.88988
0     5.669645     0.629961       3.1498
0     5.669645     0.629961      4.40972
0     5.669645     0.629961      5.66964
0     5.669645     0.629961      6.92957
0     5.791483     1.731477     0.547176
0     5.783195     1.972755      1.76294
0     5.669645     1.889882       3.1498
0     5.669645     1.889882      4.40972
0     5.834062     1.811407      5.45247
0     5.669645     1.889882      6.92957
0     5.669645     3.149803     0.629961
0     5.669645     3.149803      1.88988
0     5.669645     3.149803       3.1498
0     5.669645     3.149803      4.40972
0     5.669645     3.149803      5.66964
0     5.669645     3.149803      6.92957
0     5.669645     4.409724     0.629961
0     5.669645     4.409724      1.88988
0     5.875624     4.698107      3.08279
0     5.669645     4.409724      4.40972
0     5.866004     4.479610      5.74164
0     5.546181     4.622411      6.92713
0     5.669645     5.669645     0.629961
0     5.669645     5.669645      1.88988
0     5.669645     5.669645       3.1498
0     5.431645     5.756484      4.29186
0     5.669645     5.669645      5.66964
0     5.669645     5.669645      6.92957
0     5.669645     6.929566     0.629961
0     5.669645     6.929566      1.88988
0     5.669645     6.929566       3.1498
0     5.481016     6.733900      4.54729
0     5.640916     6.844787      5.91201
0     5.612304     6.859800       7.1246
0     6.929566     0.629961     0.629961
0     7.100239     0.817621      1.76251
0     6.929566     0.629961       3.1498
0     6.929566     0.629961      4.40972
0     6.929566     0.629961      5.66964
0     6.929566     0.629961      6.92957
0     6.929566     1.889882     0.629961
0     6.856206     2.052235      1.77006
0     6.929566     1.889882       3.1498
0     7.077636     1.758321      4.44224
0     6.929566     1.889882      5.66964
0     6.929566     1.889882      6.92957
0     6.929566     3.149803     0.629961
0     6.929566     3.149803      1.88988
0     6.929566     3.149803       3.1498
0     6.929566     3.149803      4.40972
0     6.929566     3.149803      5.66964
0     6.929566     3.149803      6.92957
0     6.929566     4.409724     0.629961
0     6.929566     4.409724      1.88988
0     6.929566     4.409724       3.1498
0     6.929566     4.409724      4.40972
0     6.929566     4.409724      5.66964
0     6.929566     4.409724      6.92957
0     6.929566     5.669645     0.629961
0     6.929566     5.669645      1.88988
0     6.929566     5.669645       3.1498
0     6.929566     5.669645      4.40972
0     6.929566     5.669645      5.66964
0     6.929566     5.669645      6.92957
0     6.929566     6.929566     0.629961
0     7.117595     6.857439      1.74306
0     7.101243     7.027469       3.2162
0     6.686090     6.728060      4.21451
0     7.050680     7.073484      5.47585
0     6.929566     6.929566      6.92957
216
steps = 200,7.559526299369238
0     0.629961     0.629961     0.629961
0     0.585050     0.446323      1.71292
0     0.553766     0.359163      3.44909
0     0.629961     0.629961      4.40972
0     0.662507     0.777049      5.54228
0     0.629961     0.629961      6.92957
0     0.629961     1.889882     0.629961
0     0.608069     1.654327       2.0423
0     0.704078     1.926504      3.10294
0     0.629961     1.889882      4.40972
0     0.629961     1.889882      5.66964
0     0.738912     1.862193      6.89235
0     0.548371     3.008662     0.681332
0     0.629961     3.149803      1.88988
0     0.629961     3.149803       3.1498
0     0.499021     3.248354      4.62158
0     0.543807     3.141772      5.69112
0     0.741014     3.154804      7.03916
0     0.799970     4.519405     0.763769
0     0.629961     4.409724      1.88988
0     0.485633     4.382461      3.04454
0     0.629961     4.409724      4.40972
0     0.804412     4.486869      5.78785
0     0.629961     4.409724      6.92957
0     0.655821     5.612890     0.421262
0     0.551412     5.642765      1.92878
0     0.629961     5.669645       3.1498
0     0.474265     5.712473      4.36491
0     0.599744     5.693183      5.57609
0     0.629961     5.669645      6.92957
0     0.629961     6.929566     0.629961
0     0.629961     6.929566      1.88988
0     0.629961     6.929566       3.1498
0     0.783029     6.931840      4.44595
0     0.629961     6.929566      5.66964
0     0.457871     7.049554      6.92954
0     1.889882     0.629961     0.629961
0     1.889882     0.629961      1.88988
0     1.889882     0.629961       3.1498
0     1.889882     0.629961      4.40972
0     1.889882     0.629961      5.66964
0     1.889882     0.629961      6.92957
0     1.992318     1.965346     0.561056
0     1.889882     1.889882      1.88988
0     1.889882     1.889882       3.1498
0     1.889882     1.889882      4.40972
0     2.079303     1.802231      5.69922
0     2.002154     1.824257      6.88292
0     1.889882     3.149803     0.629961
0     1.957328     2.956636      1.76859
0     1.739033     3.010005      3.11925
0     1.819504     3.131331      4.61086
0     1.889882     3.149803      5.66964
0     1.926181     3.345872      6.87353
0     2.116151     4.650915     0.582694
0     1.889882     4.409724      1.88988
0     1.727760     4.261166      3.05584
0     1.754465     4.473913      4.48035
0     1.835099     4.231833        5.737
0     1.889882     4.409724      6.92957
0     1.857818     5.730765      0.76689
0     2.021531     5.606641      2.09296
0     1.663810     5.807032      3.28743
0     1.889882     5.669645      4.40972
0     1.889882     5.669645      5.66964
0     1.889882     5.669645      6.92957
0     1.889882     6.929566     0.629961
0     1.928152     7.164372      2.12142
0     1.889882     6.929566       3.1498
0     2.089408     6.687840      4.17749
0     2.054600     6.698955      5.47939
0     2.073891     7.053213       6.7225
0     3.149803     0.629961     0.629961
0     3.021125     0.442345      1.68395
0     3.151562     0.702674      2.97029
0     3.149803     0.629961      4.40972
0     3.100690     0.745888      5.88835
0     3.149803     0.629961      6.92957
0     3.138137     1.863095     0.841572
0     3.149803     1.889882      1.88988
0     3.149803     1.889882       3.1498
0     3.017101     1.798345       4.2602
0     3.149803     1.889882      5.66964
0     3.177668     1.724419      6.70641
0     3.149803     3.149803     0.629961
0     3.149803     3.149803      1.88988
0     3.149803     3.149803       3.1498
0     3.149803     3.149803      4.40972
0     3.149803     3.149803      5.66964
0     2.962238     2.971550      6.94493
0     3.149803     4.409724     0.629961
0     3.178336     4.186801      2.03626
0     3.149803     4.409724       3.1498
0     3.315352     4.395920      4.43444
0     3.149803     4.409724      5.66964
0     2.937817     4.172138       6.7332
0     3.149803     5.669645     0.629961
0     3.331083     5.666355      1.95507
0     2.984154     5.527196      3.26071
0     3.438695     5.475047      4.31941
0     3.149803     5.669645      5.66964
0     3.043688     5.658223      6.90018
0     3.149803     6.929566     0.629961
0     3.149803     6.929566      1.88988
0     3.119663     6.714791      3.35675
0     3.149803     6.929566      4.40972
0     3.286529     6.890029      5.88265
0     3.149803     6.929566      6.92957
0     4.193756     0.520419     0.795707
0     4.354260     0.488329      2.02945
0     4.409724     0.629961       3.1498
0     4.420526     0.429094      4.61987
0     4.409724     0.629961      5.66964
0     4.459147     0.509359      7.08895
0     4.392427     1.969415     0.452924
0     4.522586     1.626585      2.24424
0     4.584402     1.752073      3.38369
0     4.398572     1.782558      4.62525
0     4.409724     1.889882      5.66964
0     4.409724     1.889882      6.92957
0     4.409724     3.149803     0.629961
0     4.475381     3.297173      1.73993
0     4.491564     3.153766      3.03864
0     4.409724     3.149803      4.40972
0     4.288446     2.995802      5.84266
0     4.409724     3.149803      6.92957
0     4.409724     4.409724     0.629961
0     4.409724     4.409724      1.88988
0     4.356854     4.361988      3.38377
0     4.268355     4.186174      4.63961
0     4.409724     4.409724      5.66964
0     4.527834     4.425999      6.68722
0     4.384775     5.633502     0.559559
0     4.505466     5.515886      1.68478
0     4.409724     5.669645       3.1498
0     4.421626     5.576281      4.61722
0     4.409724     5.669645      5.66964
0     4.409724     5.669645      6.92957
0     4.409724     6.929566     0.629961
0     4.285964     6.698354      1.94542
0     4.409724     6.929566       3.1498
0     4.409724     6.929566      4.40972
0     4.651508     7.102638      5.54332
0     4.409724     6.929566      6.92957
0     5.479031     0.753945     0.770274
0     5.669645     0.629961      1.88988
0     5.516169     0.849727      3.04333
0     5.669645     0.629961      4.40972
0     5.669645     0.629961      5.66964
0     5.766786     0.723586      6.93454
0     5.677969     1.947582     0.628389
0     5.783195     1.972755      1.76294
0     5.669645     1.889882       3.1498
0     5.669645     1.889882      4.40972
0     5.834062     1.811407      5.45247
0     5.669645     1.889882      6.92957
0     5.659158     3.047869     0.539933
0     5.669645     3.149803      1.88988
0     5.833839     3.336375      2.97622
0     5.669645     3.149803      4.40972
0     5.669645     3.149803      5.66964
0     5.669645     3.149803      6.92957
0     5.669645     4.409724     0.629961
0     5.867983     4.557446      1.73219
0     5.875624     4.698107      3.08279
0     5.669645     4.409724      4.40972
0     5.767355     4.509202      5.90613
0     5.546181     4.622411      6.92713
0     5.756253     5.582849     0.427702
0     5.669645     5.669645      1.88988
0     5.669645     5.669645       3.1498
0     5.431645     5.756484      4.29186
0     5.669645     5.669645      5.66964
0     5.669645     5.669645      6.92957
0     5.669645     6.929566     0.629961
0     5.669645     6.929566      1.88988
0     5.669645     6.929566       3.1498
0     5.617772     6.982308       4.7912
0     5.640916     6.844787      5.91201
0     5.612304     6.859800       7.1246
0     6.918387     0.442278     0.708857
0     7.100239     0.817621      1.76251
0     6.929566     0.629961       3.1498
0     7.006408     0.731542       4.6002
0     6.929566     0.629961      5.66964
0     6.929566     0.629961      6.92957
0     6.929566     1.889882     0.629961
0     6.856206     2.052235      1.77006
0     6.929566     1.889882       3.1498
0     7.077636     1.758321      4.44224
0     6.929566     1.889882      5.66964
0     6.929566     1.889882      6.92957
0     6.929566     3.149803     0.629961
0     6.841941     3.368098      2.11999
0     6.929566     3.149803       3.1498
0     6.929566     3.149803      4.40972
0     6.929566     3.149803      5.66964
0     6.929566     3.149803      6.92957
0     6.929566     4.409724     0.629961
0     6.929566     4.409724      1.88988
0     6.929566     4.409724       3.1498
0     7.022915     4.598768      4.36693
0     7.154028     4.414787      5.45288
0     6.929566     4.409724      6.92957
0     6.909855     5.524422     0.573299
0     6.929566     5.669645      1.88988
0     7.076789     5.453703       3.2345
0     6.929566     5.669645      4.40972
0     6.929566     5.669645      5.66964
0     6.929566     5.669645      6.92957
0     6.929566     6.929566     0.629961
0     7.117595     6.857439      1.74306
0     7.101243     7.027469       3.2162
0     6.686090     6.728060      4.21451
0     7.138933     7.262644       5.1615
0     6.929566     6.929566      6.92957
216
steps = 300,7.559526299369238
0     0.629961     0.629961     0.629961
0     0.585050     0.446323      1.71292
0     0.553766     0.359163      3.44909
0     0.629961     0.629961      4.40972
0     0.507860     0.724224      5.73707
0     0.629961     0.629961      6.92957
0     0.629961     1.889882     0.629961
0     0.725780     1.620254      2.13622
0     0.704078     1.926504      3.10294
0     0.629961     1.889882      4.40972
0     0.629961     1.889882      5.66964
0     0.592006     1.778109      7.06408
0     0.548371     3.008662     0.681332
0     0.864238     3.206089      1.73876
0     0.629961     3.149803       3.1498
0     0.696358     3.135384      4.63281
0     0.601665     3.057788      5.70325
0     0.874132     3.057005        6.913
0     0.799970     4.519405     0.763769
0     0.629961     4.409724      1.88988
0     0.485633     4.382461      3.04454
0     0.629961     4.409724      4.40972
0     0.804412     4.486869      5.78785
0     0.629961     4.409724      6.92957
0     0.655821     5.612890     0.421262
0     0.551412     5.642765      1.92878
0     0.629961     5.669645       3.1498
0     0.474265     5.712473      4.36491
0     0.599744     5.693183      5.57609
0     0.629961     5.669645      6.92957
0     0.629961     6.929566     0.629961
0     0.629961     6.929566      1.88988
0     0.629961     6.929566       3.1498
0     0.783029     6.931840      4.44595
0     0.629961     6.929566      5.66964
0     0.457871     7.049554      6.92954
0     1.889882     0.629961     0.629961
0     1.889882     0.629961      1.88988
0     1.889882     0.629961       3.1498
0     1.889882     0.629961      4.40972
0     1.646306     0.392551       5.8278
0     1.889882     0.629961      6.92957
0     1.992318     1.965346     0.561056
0     1.889882     1.889882      1.88988
0     1.889882     1.889882       3.1498
0     1.889882     1.889882      4.40972
0     1.838138     1.802917      5.63768
0     1.880602     1.919213       6.6583
0     2.101650     3.386528     0.677623
0     1.957328     2.956636      1.76859
0     1.739033     3.010005      3.11925
0     1.819504     3.131331      4.61086
0     1.889882     3.149803      5.66964
0     1.926181     3.345872      6.87353
0     2.116151     4.650915     0.582694
0     1.697325     4.547569      1.84136
0     1.734639     4.341228      2.97887
0     1.779176     4.339592      4.40306
0     1.835099     4.231833        5.737
0     1.889882     4.409724      6.92957
0     1.857818     5.730765      0.76689
0     2.021531     5.606641      2.09296
0     1.663810     5.807032      3.28743
0     1.889882     5.669645      4.40972
0     1.889882     5.669645      5.66964
0     1.869538     5.423059      6.75557
0     1.889882     6.929566     0.629961
0     1.800071     7.079572      1.99014
0     1.889882     6.929566       3.1498
0     2.089408     6.687840      4.17749
0     2.054600     6.698955      5.47939
0     2.073891     7.053213       6.7225
0     3.149803     0.629961     0.629961
0     3.098958     0.509105      1.92016
0     3.151562     0.702674      2.97029
0     3.096909     0.593997       4.3984
0     3.158553     0.703248      5.93331
0     3.149803     0.629961      6.92957
0     3.138137     1.863095     0.841572
0     2.959658     1.864278      2.03762