6
steps = 0,1.8171205928321397
0     0.454280     0.454280      0.45428
0     0.454280     0.454280      1.36284
0     0.454280     1.362840      0.45428
1     0.454280     1.362840      1.36284
1     1.362840     0.454280      0.45428
1     1.362840     0.454280      1.36284
6
steps = 10,1.8171205928321397
0     0.454280     0.454280      0.45428
0     0.454280     0.454280      1.36284
0     0.454280     1.362840      0.45428
1     0.400191     1.324823       1.4028
1     1.272007     0.402249     0.461358
1     1.362840     0.454280      1.36284
6
steps = 20,1.8171205928321397
0     0.454280     0.454280      0.45428
0     0.454280     0.454280      1.36284
0     0.361892     1.377967     0.627672
1     0.626201     1.456189      1.57134
1     1.076681     0.178692     0.436743
1     1.362840     0.454280      1.36284
6
steps = 30,1.8171205928321397
0     0.454280     0.454280      0.45428
0     0.454280     0.454280      1.36284
0     0.229936     1.347593      0.76847
1     0.386579     1.370479      1.61286
1     1.322977     0.075414     0.478928
1     1.362840     0.454280      1.36284
6
steps = 40,1.8171205928321397
0     0.454280     0.454280      0.45428
0     0.454280     0.454280      1.36284
0     0.229936     1.347593      0.76847
1     0.395900     1.309242      2.01325
1     1.322977     0.075414     0.478928
1     1.362840     0.454280      1.36284
6
steps = 50,1.8171205928321397
0     0.454280     0.454280      0.45428
0     0.454280     0.454280      1.36284
0     0.229936     1.347593      0.76847
1     0.395900     1.309242      2.01325
1     1.322977     0.075414     0.478928
1     1.605009     0.683088      1.42898
6
steps = 60,1.8171205928321397
0     0.454280     0.454280      0.45428
0     0.454280     0.454280      1.36284
0     0.229936     1.347593      0.76847
1     0.395900     1.309242      2.01325
1     1.280350     0.000252     0.619984
1     1.740250     0.846371      1.30285
6
steps = 70,1.8171205928321397
0     0.454280     0.454280      0.45428
0     0.126468     0.171923      1.40422
0     0.046326     1.349685     0.789319
1     0.395900     1.309242      2.01325
1     1.280350     0.000252     0.619984
1     1.740250     0.846371      1.30285
6
steps = 80,1.8171205928321397
0     0.454280     0.454280      0.45428
0     0.126468     0.171923      1.40422
0     0.046326     1.349685     0.789319
1     0.434431     1.307857      2.03309
1     1.280350     0.000252     0.619984
1     1.274693     1.033730      1.33976
6
steps = 90,1.8171205928321397
0     0.454280     0.454280      0.45428
0     0.126468     0.171923      1.40422
0    -0.003288     1.455705     0.589459
1     0.434431     1.307857      2.03309
1     1.193859     0.139381     0.602896
1     1.547451     0.947701      1.33607
6
steps = 100,1.8171205928321397
0     0.382786     0.607475     0.421881
0     0.126468     0.171923      1.40422
0    -0.003288     1.455705     0.589459
1     0.434431     1.307857      2.03309
1     1.386145    -0.211683     0.657747
1     1.547451     0.947701      1.33607
6
steps = 110,1.8171205928321397
0     0.382786     0.607475     0.421881
0     0.126468     0.171923      1.40422
0    -0.003288     1.455705     0.589459
1     0.439630     1.433663      1.94391
1     1.211630    -0.132896     0.801178
1     1.547451     0.947701      1.33607
6
steps = 120,1.8171205928321397
0     0.382786     0.607475     0.421881
0     0.126468     0.171923      1.40422
0    -0.003288     1.455705     0.589459
1     0.470346     1.551950      1.77628
1     1.211630    -0.132896     0.801178
1     1.508873     0.824144      1.41706
6
steps = 130,1.8171205928321397
0     0.587059     0.667503     0.430453
0     0.000673     0.161587      1.40221
0    -0.003288     1.455705     0.589459
1     0.470346     1.551950      1.77628
1     1.227019     0.048372     0.738537
1     1.724540     0.624400      1.65053
6
steps = 140,1.8171205928321397
0     0.635399     0.538376     0.368351
0    -0.071189     0.247084      1.44083
0    -0.003288     1.455705     0.589459
1     0.455145     1.491362      1.80046
1     1.398399    -0.091496     0.563679
1     1.581202     0.848670      1.60764
6
steps = 150,1.8171205928321397
0     0.690133     0.520104     0.321118
0    -0.071189     0.247084      1.44083
0    -0.003288     1.455705     0.589459
1     0.455145     1.491362      1.80046
1     1.398399    -0.091496     0.563679
1     1.635949     0.723418      1.79886
6
steps = 160,1.8171205928321397
0     0.690133     0.520104     0.321118
0    -0.071189     0.247084      1.44083
0    -0.178316     1.295930     0.358491
1     0.729459     1.565836      1.58307
1     1.398399    -0.091496     0.563679
1     1.635949     0.723418      1.79886
6
steps = 170,1.8171205928321397
0     0.690133     0.520104     0.321118
0    -0.240463     0.249445      1.53917
0    -0.178316     1.295930     0.358491
1     0.729459     1.565836      1.58307
1     1.398399    -0.091496     0.563679
1     1.635949     0.723418      1.79886
6
steps = 180,1.8171205928321397
0     0.743788     0.224224     0.721636
0    -0.401586     0.423484       1.4534
0    -0.178316     1.295930     0.358491
1     0.729459     1.565836      1.58307
1     1.398399    -0.091496     0.563679
1     1.350006     0.621902       1.6162
6
steps = 190,1.8171205928321397
0     0.584533     0.251581     0.776911
0    -0.401586     0.423484       1.4534
0    -0.155200     1.161830     0.563638
1     0.729459     1.565836      1.58307
1     1.384403    -0.100903     0.571513
1     1.350006     0.621902       1.6162
6
steps = 200,1.8171205928321397
0     0.584533     0.251581     0.776911
0    -0.401586     0.423484       1.4534
0    -0.096313     0.990557     0.527918
1     0.575368     1.317872      1.67634
1     1.384403    -0.100903     0.571513
1     1.350006     0.621902       1.6162
6
steps = 210,1.8171205928321397
0     0.584533     0.251581     0.776911
0    -0.401586     0.423484       1.4534
0    -0.096313     0.990557     0.527918
1     0.364705     1.531091      1.34653
1     1.384403    -0.100903     0.571513
1     1.199867     0.731835      1.52374
6
steps = 220,1.8171205928321397
0     0.584533     0.251581     0.776911
0    -0.499650     0.369101      1.65866
0    -0.096313     0.990557     0.527918
1     0.543789     1.567496      1.54887
1     1.384403    -0.100903     0.571513
1     1.631377     0.614531      1.37542
6
steps = 230,1.8171205928321397
0     0.438529     0.076354     0.855799
0    -0.323767     0.089670      1.98674
0    -0.096313     0.990557     0.527918
1     0.409078     1.709990      1.49478
1     1.141853    -0.202256     0.682553
1     1.744427     0.768693       1.4114
6
steps = 240,1.8171205928321397
0     0.438529     0.076354     0.855799
0    -0.323767     0.089670      1.98674
0    -0.096313     0.990557     0.527918
1     0.635730     1.534228      1.45845
1     1.305602    -0.218799     0.530017
1     1.744427     0.768693       1.4114
6
steps = 250,1.8171205928321397
0     0.438529     0.076354     0.855799
0    -0.718463     0.256137       1.7469
0    -0.096313     0.990557     0.527918
1     0.635730     1.534228      1.45845
1     1.305602    -0.218799     0.530017
1     1.634969     0.933117      1.36116
6
steps = 260,1.8171205928321397
0     0.438529     0.076354     0.855799
0    -0.728248     0.421652      1.64126
0    -0.096313     0.990557     0.527918
1     0.549533     1.635343      1.54679
1     1.305602    -0.218799     0.530017
1     1.458854     0.909029      1.39172
6
steps = 270,1.8171205928321397
0     0.438529     0.076354     0.855799
0    -0.932274     0.495457      1.81197
0    -0.096313     0.990557     0.527918
1     0.540224     1.629143      1.68491
1     1.475993     0.092975     0.638736
1     1.458854     0.909029      1.39172
6
steps = 280,1.8171205928321397
0     0.438529     0.076354     0.855799
0    -0.580655     0.403604      1.53895
0    -0.343084     1.179006     0.667035
1     0.437586     1.630020       1.5381
1     1.475993     0.092975     0.638736
1     1.458863     0.927258      1.32504
6
steps = 290,1.8171205928321397
0     0.663347     0.323568     0.677817
0    -0.501096     0.615023      1.49914
0    -0.343084     1.179006     0.667035
1     0.364321     1.572035      1.37445
1     1.580898     0.293137     0.503502
1     1.232857     0.872107      1.34238
6
steps = 300,1.8171205928321397
0     0.663347     0.323568     0.677817
0    -0.501096     0.615023      1.49914
0    -0.201481     1.597872     0.764776
1     0.364321     1.572035      1.37445
1     1.667186     0.182656     0.506717
1     1.205891     0.623337       1.3187
6
steps = 310,1.8171205928321397
0     0.663347     0.323568     0.677817
0    -0.359195     0.649105      1.73561
0    -0.419300     1.459656     0.953812
1     0.221255     1.324184      1.40568
1     1.525483    -0.018619     0.412718
1     1.205891     0.623337       1.3187
6
steps = 320,1.8171205928321397
0     0.705086     0.271077     0.600276
0    -0.186588     0.440810      1.78869
0    -0.419300     1.459656     0.953812
1     0.221255     1.324184      1.40568
1     1.525483    -0.018619     0.412718
1     0.922741     0.688948       1.7044
6
steps = 330,1.8171205928321397
0     0.705086     0.271077     0.600276
0    -0.065163     0.421780      1.76898
0    -0.293839     1.513199      0.88503
1     0.108611     1.416606      1.43971
1     1.330202    -0.015771      0.56546
1     0.692875     0.746222      1.94893
6
steps = 340,1.8171205928321397
0     0.819705     0.376503     0.682414
0    -0.236148     0.646238      1.73333
0    -0.293328     1.249887     0.822653
1     0.108611     1.416606      1.43971
1     1.330202    -0.015771      0.56546
1     0.692875     0.746222      1.94893
6
steps = 350,1.8171205928321397
0     0.819705     0.376503     0.682414
0    -0.463626     0.473988       1.5995
0    -0.293328     1.249887     0.822653
1     0.108611     1.416606      1.43971
1     1.330202    -0.015771      0.56546
1     0.700120     0.701404      1.89491
6
steps = 360,1.8171205928321397
0     0.638553     0.286829      0.69671
0    -0.375200     0.681005      1.75188
0    -0.293328     1.249887     0.822653
1     0.024682     1.371988      1.49353
1     1.330202    -0.015771      0.56546
1     0.700120     0.701404      1.89491
6
steps = 370,1.8171205928321397
0     0.453716    -0.089536      0.61098
0    -0.289302     0.492040      1.62425
0    -0.435110     1.403500      0.98918
1     0.024682     1.371988      1.49353
1     1.330202    -0.015771      0.56546
1     0.489616     0.590715       1.7649
6
steps = 380,1.8171205928321397
0     0.453716    -0.089536      0.61098
0    -0.104284     0.852157      1.98974
0    -0.435110     1.403500      0.98918
1     0.024682     1.371988      1.49353
1     1.277119    -0.067228     0.695215
1     0.302883     0.424691      2.01252
6
steps = 390,1.8171205928321397
0     0.453716    -0.089536      0.61098
0    -0.104284     0.852157      1.98974
0    -0.435110     1.403500      0.98918
1     0.024682     1.371988      1.49353
1     1.127401    -0.156690     0.717315
1     0.302883     0.424691      2.01252
6
steps = 400,1.8171205928321397
0     0.445839     0.155072     0.756961
0    -0.104284     0.852157      1.98974
0    -0.435110     1.403500      0.98918
1     0.024682     1.371988      1.49353
1     1.042155    -0.187402     0.781748
1     0.302883     0.424691      2.01252
6
steps = 410,1.8171205928321397
0     0.298359     0.190530     0.737651
0    -0.077963     0.711436       1.8383
0    -0.435110     1.403500      0.98918
1     0.095912     1.212570      1.24463
1     1.042155    -0.187402     0.781748
1     0.302883     0.424691      2.01252
6
steps = 420,1.8171205928321397
0     0.298359     0.190530     0.737651
0    -0.295384     0.534898       1.8415
0    -0.435110     1.403500      0.98918
1     0.093488     1.270466      1.25167
1     1.036651    -0.338591     0.530912
1     0.302883     0.424691      2.01252
6
steps = 430,1.8171205928321397
0     0.521479     0.345262      0.86726
0    -0.260385     0.687033      1.85861
0    -0.435110     1.403500      0.98918
1     0.093488     1.270466      1.25167
1     1.036651    -0.338591     0.530912
1     0.068664     0.293200      2.25109
6
steps = 440,1.8171205928321397
0     0.723989     0.586490      1.11469
0    -0.260385     0.687033      1.85861
0    -0.435110     1.403500      0.98918
1     0.093488     1.270466      1.25167
1     1.036651    -0.338591     0.530912
1     0.003355     0.446172      1.83573
6
steps = 450,1.8171205928321397
0     0.685756     0.473792      1.19424
0    -0.260385     0.687033      1.85861
0    -0.570443     1.527026     0.906432
1     0.093488     1.270466      1.25167
1     0.893074    -0.452619     0.736923
1     0.003355     0.446172      1.83573
6
steps = 460,1.8171205928321397
0     0.815932     0.579457      1.03726
0    -0.260385     0.687033      1.85861
0    -0.570443     1.527026     0.906432
1     0.093488     1.270466      1.25167
1     0.724214    -0.700846     0.550033
1     0.178471     0.219360      2.04827
6
steps = 470,1.8171205928321397
0     0.815932     0.579457      1.03726
0    -0.035168     0.800108      1.95573
0    -0.570443     1.527026     0.906432
1    -0.059095     1.355517      1.24477
1     0.724214    -0.700846     0.550033
1     0.123877     0.274368      2.25007
6
steps = 480,1.8171205928321397
0     0.815932     0.579457      1.03726
0    -0.147431     0.872802      2.01356
0    -0.454714     1.400768      1.11061
1    -0.059095     1.355517      1.24477
1     0.724214    -0.700846     0.550033
1     0.123877     0.274368      2.25007
6
steps = 490,1.8171205928321397
0     0.815932     0.579457      1.03726
0    -0.061787     0.653551      1.87749
0    -0.454714     1.400768      1.11061
1    -0.147172     1.574533      1.28482
1     0.724214    -0.700846     0.550033
1     0.123877     0.274368      2.25007
6
steps = 500,1.8171205928321397
0     0.604005     0.763074      1.04183
0    -0.061787     0.653551      1.87749
0    -0.454714     1.400768      1.11061
1    -0.264667     1.791975      1.10932
1     0.465224    -0.557235     0.727288
1    -0.017739     0.493647      2.12713
6
steps = 510,1.8171205928321397
0     0.512294     0.602110       1.1574
0    -0.328172     0.377433      1.78427
0    -0.454714     1.400768      1.11061
1    -0.264667     1.791975      1.10932
1     0.465224    -0.557235     0.727288
1    -0.017739     0.493647      2.12713
6
steps = 520,1.8171205928321397
0     0.560963     0.709555      1.19892
0    -0.328172     0.377433      1.78427
0    -0.454714     1.400768      1.11061
1    -0.341953     1.689231      1.16459
1     0.549973    -0.543119     0.672851
1    -0.017739     0.493647      2.12713
6
steps = 530,1.8171205928321397
0     0.560963     0.709555      1.19892
0    -0.328172     0.377433      1.78427
0    -0.454714     1.400768      1.11061
1    -0.485669     1.663920      1.24251
1     0.549973    -0.543119     0.672851
1    -0.017739     0.493647      2.12713
6
steps = 540,1.8171205928321397
0     0.560963     0.709555      1.19892
0    -0.328172     0.377433      1.78427
0    -0.437979     1.453292      1.12436
1    -0.405610     1.671366      1.22285
1     0.549973    -0.543119     0.672851
1     0.014605     0.263083      2.06626
6
steps = 550,1.8171205928321397
0     0.560963     0.709555      1.19892
0    -0.328172     0.377433      1.78427
0    -0.359460     1.513426     0.857464
1    -0.425466     1.522656      1.10503
1     0.549973    -0.543119     0.672851
1    -0.108250     0.374827      2.15433
6
steps = 560,1.8171205928321397
0     0.560963     0.709555      1.19892
0    -0.444362     0.504078      1.80256
0    -0.359460     1.513426     0.857464
1    -0.521356     1.481498      1.34546
1     0.549973    -0.543119     0.672851
1    -0.108250     0.374827      2.15433
6
steps = 570,1.8171205928321397
0     0.497807     0.713244     0.864719
0    -0.495604     0.336452      1.71599
0    -0.359460     1.513426     0.857464
1    -0.564162     1.294465      1.56241
1     0.439237    -0.305216     0.920239
1    -0.108250     0.374827      2.15433
6
steps = 580,1.8171205928321397
0     0.432161     0.524330     0.688904
0    -0.578450     0.494526      1.80174
0    -0.499904     1.360885     0.949513
1    -0.674738     1.086542      1.64845
1     0.439237    -0.305216     0.920239
1     0.000417     0.463650      2.14254
6
steps = 590,1.8171205928321397
0     0.525673     0.354056     0.779433
0    -0.357693     0.733135      1.85709
0    -0.499904     1.360885     0.949513
1    -0.674738     1.086542      1.64845
1     0.205150    -0.442361     0.925555
1     0.121926     0.507809      2.20514
6
steps = 600,1.8171205928321397
0     0.525673     0.354056     0.779433
0    -0.495226     0.796531      1.86779
0    -0.499904     1.360885     0.949513
1    -0.674738     1.086542      1.64845
1     0.205150    -0.442361     0.925555
1     0.121926     0.507809      2.20514
6
steps = 610,1.8171205928321397
0     0.324036     0.482770     0.906859
0    -0.496511     0.598256      1.79845
0    -0.340517     1.390918     0.930547
1    -0.744791     0.946411      1.62575
1     0.205150    -0.442361     0.925555
1     0.110336     0.504677      2.05888
6
steps = 620,1.8171205928321397
0     0.402870     0.677889      0.83712
0    -0.732703     0.382232       1.8142
0    -0.475442     1.273428     0.962065
1    -0.943050     1.010786      1.62949
1     0.205150    -0.442361     0.925555
1    -0.051230     0.650737      1.83509
6
steps = 630,1.8171205928321397
0     0.154017     0.569941     0.883092
0    -0.808714     0.575220      1.85012
0    -0.752779     1.318641     0.962651
1    -0.815241     1.251424       1.8418
1     0.205150    -0.442361     0.925555
1    -0.073775     0.152438      1.82503
6
steps = 640,1.8171205928321397
0     0.121886     0.533268      1.10661
0    -0.808714     0.575220      1.85012
0    -0.557884     1.376907      1.12563
1    -0.815241     1.251424       1.8418
1     0.315253    -0.680087      0.82357
1    -0.073775     0.152438      1.82503
6
steps = 650,1.8171205928321397
0     0.121886     0.533268      1.10661
0    -0.924659     0.474754      1.73489
0    -0.619231     1.417357      1.30397
1    -0.620707     1.133583      1.74308
1     0.315253    -0.680087      0.82357
1    -0.150116     0.205105       1.9882
6
steps = 660,1.8171205928321397
0     0.195006     0.939409      1.31481
0    -0.924659     0.474754      1.73489
0    -0.619231     1.417357      1.30397
1    -0.620707     1.133583      1.74308
1     0.141899    -1.026275     0.977095
1    -0.150116     0.205105       1.9882
6
steps = 670,1.8171205928321397
0     0.103443     0.717395      1.32655
0    -0.740813     0.480206       1.8979
0    -0.841539     1.545733      1.30671
1    -0.712755     1.183101      1.83105
1     0.688649    -1.067739     0.952728
1    -0.377839     0.273782      2.18462
6
steps = 680,1.8171205928321397
0     0.235912     0.930609      1.70328
0    -0.736488     0.274002      1.80298
0    -1.017811     1.275555     0.642994
1    -0.712755     1.183101      1.83105
1     0.688649    -1.067739     0.952728
1    -0.153141     0.157939      2.37704
6
steps = 690,1.8171205928321397
0     0.135431     0.939421      1.53603
0    -0.716007     0.356965      1.98378
0    -1.017811     1.275555     0.642994
1    -0.712755     1.183101      1.83105
1     0.688649    -1.067739     0.952728
1    -0.189920     0.282726       2.5698
6
steps = 700,1.8171205928321397
0     0.135431     0.939421      1.53603
0    -0.339170     0.202481      2.13039
0    -1.212501     1.512427     0.707405
1    -0.712755     1.183101      1.83105
1     0.688649    -1.067739     0.952728
1    -0.189920     0.282726       2.5698
6
steps = 710,1.8171205928321397
0     0.135431     0.939421      1.53603
0    -0.339170     0.202481      2.13039
0    -1.212501     1.512427     0.707405
1    -0.583408     1.417780      1.88527
1     0.661213    -1.067096     0.923316
1    -0.221570     0.242349      2.79232
6
steps = 720,1.8171205928321397
0    -0.541858     1.166836      1.53281
0    -0.339170     0.202481      2.13039
0    -1.102121     1.471323     0.711316
1    -0.683466     1.638149      1.79543
1     0.600504    -0.741815     0.705677
1    -0.221570     0.242349      2.79232
6
steps = 730,1.8171205928321397
0    -0.597384     1.074428      1.65916
0    -0.339170     0.202481      2.13039
0    -1.102121     1.471323     0.711316
1    -0.721465     1.684155      1.60646
1     0.604778    -0.983273     0.836771
1    -0.196660     0.099378      2.61843
6
steps = 740,1.8171205928321397
0    -0.597384     1.074428      1.65916
0    -0.339170     0.202481      2.13039
0    -1.102121     1.471323     0.711316
1    -0.939907     1.862364      1.60475
1     0.604778    -0.983273     0.836771
1    -0.288318     0.139953      2.63436
6
steps = 750,1.8171205928321397
0    -0.595410     1.058577      1.62972
0    -0.339170     0.202481      2.13039
0    -1.282815     1.859577      1.16335
1    -0.983973     1.907806       1.5706
1     0.845214    -0.815590     0.860365
1    -0.288318     0.139953      2.63436
6
steps = 760,1.8171205928321397
0    -0.595410     1.058577      1.62972
0    -0.446779     0.185111      2.30311
0    -1.282815     1.859577      1.16335
1    -1.046591     1.969584      1.45072
1     1.056457    -0.875718      0.80009
1    -0.203888    -0.015971      2.19677
6
steps = 770,1.8171205928321397
0    -0.515864     1.197658      1.39803
0    -0.393271     0.294358      2.41098
0    -1.282815     1.859577      1.16335
1    -1.096523     1.876032      1.48973
1     1.056457    -0.875718      0.80009
1    -0.203888    -0.015971      2.19677
6
steps = 780,1.8171205928321397
0    -0.515864     1.197658      1.39803
0    -0.546632     0.180174      2.19997
0    -1.318205     1.642143      1.04269
1    -1.096523     1.876032      1.48973
1     0.652950    -0.844943     0.448239
1    -0.203888    -0.015971      2.19677
6
steps = 790,1.8171205928321397
0    -0.515864     1.197658      1.39803
0    -0.519315     0.411373      2.28852
0    -1.318205     1.642143      1.04269
1    -1.096523     1.876032      1.48973
1     0.800937    -0.824266     0.401112
1    -0.203888    -0.015971      2.19677
6
steps = 800,1.8171205928321397
0    -0.359870     1.263492      1.48646
0    -0.471170     0.344302      2.22917
0    -1.318205     1.642143      1.04269
1    -1.096523     1.876032      1.48973
1     0.600536    -0.863740     0.328211
1    -0.203888    -0.015971      2.19677
6
steps = 810,1.8171205928321397
0    -0.359870     1.263492      1.48646
0    -0.603255     0.516218      2.06041
0    -1.318205     1.642143      1.04269
1    -1.141038     1.993502      1.44295
1     0.600536    -0.863740     0.328211
1    -0.356390    -0.136121      2.25539
6
steps = 820,1.8171205928321397
0    -0.359870     1.263492      1.48646
0    -0.603255     0.516218      2.06041
0    -1.318205     1.642143      1.04269
1    -1.339783     2.005422      1.37636
1     0.790227    -0.785074     0.351574
1    -0.355455     0.039733      2.14422
6
steps = 830,1.8171205928321397
0    -0.359870     1.263492      1.48646
0    -0.805114     0.655790      2.30361
0    -1.300814     1.748444      1.25516
1    -1.339783     2.005422      1.37636
1     0.896456    -0.747992      0.11325
1    -0.309389     0.062537      2.37763
6
steps = 840,1.8171205928321397
0    -0.359870     1.263492      1.48646
0    -0.805114     0.655790      2.30361
0    -1.300814     1.748444      1.25516
1    -1.480703     1.790097      1.29268
1     0.896456    -0.747992      0.11325
1    -0.309389     0.062537      2.37763
6
steps = 850,1.8171205928321397
0    -0.359870     1.263492      1.48646
0    -0.969198     0.575042      2.23895
0    -1.300814     1.748444      1.25516
1    -1.574444     1.686631      1.46041
1     0.896456    -0.747992      0.11325
1    -0.371817     0.073817      2.40376
6
steps = 860,1.8171205928321397
0    -0.176848     1.499657      2.05818
0    -0.969198     0.575042      2.23895
0    -1.300814     1.748444      1.25516
1    -1.574444     1.686631      1.46041
1     0.896456    -0.747992      0.11325
1    -0.587516    -0.040004      2.49286
6
steps = 870,1.8171205928321397
0    -0.176848     1.499657      2.05818
0    -1.060383     0.821094      2.06671
0    -1.300814     1.748444      1.25516
1    -1.557008     2.013107      1.44635
1     0.915510    -0.867332     0.240796
1    -0.587516    -0.040004      2.49286
6
steps = 880,1.8171205928321397
0    -0.176848     1.499657      2.05818
0    -0.887191     0.588509      2.02965
0    -1.501875     1.766432      1.30922
1    -1.521323     2.062686      1.41417
1     0.858481    -0.934748     0.269613
1    -0.587516    -0.040004      2.49286
6
steps = 890,1.8171205928321397
0    -0.176848     1.499657      2.05818
0    -0.887191     0.588509      2.02965
0    -1.501875     1.766432      1.30922
1    -1.722510     2.259176      1.46766
1     0.728693    -0.641689    0.0722448
1    -0.741861    -0.024568       2.6897
6
steps = 900,1.8171205928321397
0    -0.176848     1.499657      2.05818
0    -1.056172     0.396446      1.99517
0    -1.382250     1.523197      1.30137
1    -1.722510     2.259176      1.46766
1     0.728693    -0.641689    0.0722448
1    -0.741861    -0.024568       2.6897
6
steps = 910,1.8171205928321397
0    -0.176848     1.499657      2.05818
0    -1.183592     0.482783      2.09671
0    -1.163093     1.314907      1.19545
1    -1.706423     2.387617         1.27
1     0.728693    -0.641689    0.0722448
1    -0.921955    -0.144589      2.82711
6
steps = 920,1.8171205928321397
0    -0.176848     1.499657      2.05818
0    -1.544260     0.541848      1.87937
0    -1.153428     1.643839      1.30766
1    -1.706423     2.387617         1.27
1     0.728693    -0.641689    0.0722448
1    -0.768208    -0.050912      2.60329
6
steps = 930,1.8171205928321397
0    -0.176848     1.499657      2.05818
0    -1.544260     0.541848      1.87937
0    -0.863348     1.511279      1.28499
1    -1.706423     2.387617         1.27
1     0.816492    -0.538299    -0.057124
1    -0.768208    -0.050912      2.60329
6
steps = 940,1.8171205928321397
0    -0.351057     1.510268      2.10811
0    -1.544260     0.541848      1.87937
0    -1.107041     1.605235      1.18034
1    -1.465322     2.554114      1.03223
1     0.816492    -0.538299    -0.057124
1    -0.768208    -0.050912      2.60329
6
steps = 950,1.8171205928321397
0    -0.441106     1.412695      2.13514
0    -1.543625     0.595993      2.05716
0    -1.107041     1.605235      1.18034
1    -1.465322     2.554114      1.03223
1     0.587949    -0.690074      0.16878
1    -0.541926     0.161138      2.36792
6
steps = 960,1.8171205928321397
0    -0.441106     1.412695      2.13514
0    -1.507367     0.621889      1.85866
0    -0.989941     1.735535      1.21224
1    -1.465322     2.554114      1.03223
1     0.643880    -0.446486     0.120234
1    -0.491598     0.288753      2.41584
6
steps = 970,1.8171205928321397
0    -0.237672     1.599225        2.101
0    -1.270733     0.677901      1.82213
0    -0.989941     1.735535      1.21224
1    -1.465322     2.554114      1.03223
1     0.643880    -0.446486     0.120234
1    -0.491598     0.288753      2.41584
6
steps = 980,1.8171205928321397
0    -0.272491     1.834102      2.31702
0    -1.323355     0.720256      1.74553
0    -0.955084     1.809370       1.2057
1    -1.465322     2.554114      1.03223
1     0.706950    -0.320943   -0.0435101
1    -0.203139     0.050137      1.96023
6
steps = 990,1.8171205928321397
0    -0.068472     2.210083      2.45226
0    -1.222367     0.526936      1.75347
0    -0.950684     1.791078     0.982213
1    -1.514961     2.690503     0.943521
1     0.706950    -0.320943   -0.0435101
1    -0.269909     0.186787      2.00929
6
steps = 1000,1.8171205928321397
0    -0.068472     2.210083      2.45226
0    -1.222367     0.526936      1.75347
0    -0.950684     1.791078     0.982213
1    -1.161678     2.484119      0.82387
1     0.706950    -0.320943   -0.0435101
1    -0.114156     0.209269      1.96137
6
steps = 1010,1.8171205928321397
0    -0.068472     2.210083      2.45226
0    -1.222367     0.526936      1.75347
0    -0.950684     1.791078     0.982213
1    -1.572882     2.488576     0.988535
1     0.706950    -0.320943   -0.0435101
1    -0.327839     0.255820      2.02334
6
steps = 1020,1.8171205928321397
0    -0.068472     2.210083      2.45226
0    -1.222367     0.526936      1.75347
0    -0.950684     1.791078     0.982213
1    -1.644419     2.665252      1.07672
1     0.957230    -0.395951    -0.331713
1    -0.656556     0.401016      2.29416
6
steps = 1030,1.8171205928321397
0    -0.068472     2.210083      2.45226
0    -1.222367     0.526936      1.75347
0    -1.063977     1.823725     0.898248
1    -1.791557     2.613984      1.19658
1     0.957230    -0.395951    -0.331713
1    -1.040822     0.280907      2.38073
6
steps = 1040,1.8171205928321397
0    -0.068472     2.210083      2.45226
0    -1.222367     0.526936      1.75347
0    -1.000454     1.927138     0.857769
1    -1.791557     2.613984      1.19658
1     0.791604    -0.595463    -0.112199
1    -1.187770     0.234490      2.35992
6
steps = 1050,1.8171205928321397
0    -0.068472     2.210083      2.45226
0    -1.222367     0.526936      1.75347
0    -0.864465     1.724829     0.908891
1    -2.012743     2.603195      1.22912
1     0.791604    -0.595463    -0.112199
1    -1.187770     0.234490      2.35992
6
steps = 1060,1.8171205928321397
0    -0.068472     2.210083      2.45226
0    -1.022682     0.340639      1.81695
0    -0.864465     1.724829     0.908891
1    -2.012743     2.603195      1.22912
1     0.791604    -0.595463    -0.112199
1    -1.212293     0.266890      2.36378
6
steps = 1070,1.8171205928321397
0    -0.068472     2.210083      2.45226
0    -0.871384     0.306366      1.64313